ANIMSTEP     1001
CRYSTAL
PRIMVEC          1
   10.00000000    0.00000000    0.00000000
    0.00000000   10.00000000    0.00000000
    0.00000000    0.00000000   10.00000000
PRIMCOORD        1
      64       1
  Si      0.00000000      0.00000000      0.00000000
  Si      5.00000000      0.00000000      0.00000000
  Si      0.00000000      5.00000000      0.00000000
  Si      5.00000000      5.00000000      0.00000000
  Si      0.00000000      0.00000000      5.00000000
  Si      5.00000000      0.00000000      5.00000000
  Si      0.00000000      5.00000000      5.00000000
  Si      5.00000000      5.00000000      5.00000000
  Si      2.50000000      2.50000000      0.00000000
  Si      7.50000000      2.50000000      0.00000000
  Si      2.50000000      7.50000000      0.00000000
  Si      7.50000000      7.50000000      0.00000000
  Si      2.50000000      2.50000000      5.00000000
  Si      7.50000000      2.50000000      5.00000000
  Si      2.50000000      7.50000000      5.00000000
  Si      7.50000000      7.50000000      5.00000000
  Si      2.50000000      0.00000000      2.50000000
  Si      7.50000000      0.00000000      2.50000000
  Si      2.50000000      5.00000000      2.50000000
  Si      7.50000000      5.00000000      2.50000000
  Si      2.50000000      0.00000000      7.50000000
  Si      7.50000000      0.00000000      7.50000000
  Si      2.50000000      5.00000000      7.50000000
  Si      7.50000000      5.00000000      7.50000000
  Si      0.00000000      2.50000000      2.50000000
  Si      5.00000000      2.50000000      2.50000000
  Si      0.00000000      7.50000000      2.50000000
  Si      5.00000000      7.50000000      2.50000000
  Si      0.00000000      2.50000000      7.50000000
  Si      5.00000000      2.50000000      7.50000000
  Si      0.00000000      7.50000000      7.50000000
  Si      5.00000000      7.50000000      7.50000000
  Si      1.25000000      1.25000000      1.25000000
  Si      6.25000000      1.25000000      1.25000000
  Si      1.25000000      6.25000000      1.25000000
  Si      6.25000000      6.25000000      1.25000000
  Si      1.25000000      1.25000000      6.25000000
  Si      6.25000000      1.25000000      6.25000000
  Si      1.25000000      6.25000000      6.25000000
  Si      6.25000000      6.25000000      6.25000000
  Si      1.25000000      3.75000000      3.75000000
  Si      6.25000000      3.75000000      3.75000000
  Si      1.25000000      8.75000000      3.75000000
  Si      6.25000000      8.75000000      3.75000000
  Si      1.25000000      3.75000000      8.75000000
  Si      6.25000000      3.75000000      8.75000000
  Si      1.25000000      8.75000000      8.75000000
  Si      6.25000000      8.75000000      8.75000000
  Si      3.75000000      1.25000000      3.75000000
  Si      8.75000000      1.25000000      3.75000000
  Si      3.75000000      6.25000000      3.75000000
  Si      8.75000000      6.25000000      3.75000000
  Si      3.75000000      1.25000000      8.75000000
  Si      8.75000000      1.25000000      8.75000000
  Si      3.75000000      6.25000000      8.75000000
  Si      8.75000000      6.25000000      8.75000000
  Si      3.75000000      3.75000000      1.25000000
  Si      8.75000000      3.75000000      1.25000000
  Si      3.75000000      8.75000000      1.25000000
  Si      8.75000000      8.75000000      1.25000000
  Si      3.75000000      3.75000000      6.25000000
  Si      8.75000000      3.75000000      6.25000000
  Si      3.75000000      8.75000000      6.25000000
  Si      8.75000000      8.75000000      6.25000000
CRYSTAL
PRIMVEC         11
   10.00000000    0.00000000    0.00000000
    0.00000000   10.00000000    0.00000000
    0.00000000    0.00000000   10.00000000
PRIMCOORD       11
      64       1
  Si      9.99575033      0.00040542      9.99800559
  Si      5.00503660      0.00177202      0.00157395
  Si      0.00133103      5.00413101      0.00197717
  Si      5.00151032      4.99520486      9.99810359
  Si      9.99546348      0.00146452      4.99997215
  Si      5.00416685      0.00041164      4.99701240
  Si      0.00049153      4.99840782      5.00520292
  Si      5.00201722      4.99710705      4.99531215
  Si      2.49885074      2.50074311      0.00334775
  Si      7.49927602      2.49955250      0.00448320
  Si      2.50324249      7.49752640      0.00444216
  Si      7.50508519      7.50419611      9.99855379
  Si      2.49498409      2.49822924      5.00401113
  Si      7.50321100      2.49857174      5.00118332
  Si      2.49972808      7.49527543      4.99783740
  Si      7.50182858      7.49602373      4.99843888
  Si      2.50527639      0.00619809      2.50204691
  Si      7.49580348      0.00413285      2.49869463
  Si      2.49857253      5.00293643      2.49904864
  Si      7.49744811      5.00001114      2.50116572
  Si      2.49485978      9.99898571      7.49788796
  Si      7.50090313      9.99766583      7.49642195
  Si      2.49870720      4.99729085      7.49769647
  Si      7.50431266      4.99872496      7.50226413
  Si      9.99856950      2.49589057      2.50189967
  Si      5.00107487      2.49537828      2.50352142
  Si      0.00160990      7.49958195      2.49804571
  Si      4.99913419      7.50408752      2.49528013
  Si      9.99645748      2.49523957      7.50401292
  Si      5.00386012      2.50326519      7.49714775
  Si      0.00139849      7.50273869      7.49770538
  Si      5.00484617      7.50315541      7.49834869
  Si      1.25090274      1.25359763      1.24781966
  Si      6.24841802      1.24602992      1.25089356
  Si      1.24475109      6.24795154      1.25329252
  Si      6.24735693      6.25286740      1.25225442
  Si      1.24823375      1.24651325      6.25345998
  Si      6.24618345      1.25245830      6.24780417
  Si      1.24649383      6.25118641      6.24512449
  Si      6.25080684      6.24903389      6.24681398
  Si      1.25222531      3.75112703      3.74805436
  Si      6.24501538      3.75523136      3.74757681
  Si      1.25252791      8.75409206      3.75344519
  Si      6.25575037      8.75314667      3.74751338
  Si      1.25034389      3.75177152      8.74958513
  Si      6.24786709      3.74918967      8.74713119
  Si      1.24620652      8.75119763      8.74872978
  Si      6.25206548      8.74524324      8.74637151
  Si      3.74735421      1.24604896      3.75227896
  Si      8.75432306      1.24650063      3.74857513
  Si      3.74968004      6.24670317      3.75240533
  Si      8.74747776      6.24951620      3.75217455
  Si      3.74871052      1.24973105      8.75186131
  Si      8.75087513      1.25399537      8.75566644
  Si      3.75464174      6.24806287      8.74634531
  Si      8.74770780      6.25197880      8.74563236
  Si      3.74617269      3.74530661      1.24572234
  Si      8.74622550      3.74658522      1.24859476
  Si      3.74558424      8.75621543      1.24875487
  Si      8.75090819      8.75016436      1.25551834
  Si      3.75432322      3.74854520      6.25153091
  Si      8.75550713      3.75142439      6.24726387
  Si      3.74984338      8.74912273      6.25510964
  Si      8.75070920      8.75515579      6.25605014
CRYSTAL
PRIMVEC         21
   10.00000000    0.00000000    0.00000000
    0.00000000   10.00000000    0.00000000
    0.00000000    0.00000000   10.00000000
PRIMCOORD       21
      64       1
  Si      9.99163073      0.00077972      9.99621205
  Si      5.00996939      0.00334833      0.00291700
  Si      0.00242443      5.00810070      0.00381779
  Si      5.00298743      4.99053292      9.99635990
  Si      9.99109649      0.00283555      5.00004252
  Si      5.00817024      0.00063356      4.99414313
  Si      0.00102353      4.99687178      5.01000984
  Si      5.00390718      4.99433566      4.99089493
  Si      2.49763679      2.50144034      0.00638077
  Si      7.49830612      2.49909728      0.00881741
  Si      2.50631081      7.49500571      0.00867148
  Si      7.51005844      7.50824999      9.99727258
  Si      2.49009675      2.49650389      5.00799649
  Si      7.50632310      2.49727024      5.00215417
  Si      2.49955082      7.49076982      4.99577992
  Si      7.50368196      7.49238032      4.99706276
  Si      2.51019602      0.01227859      2.50397750
  Si      7.49186250      0.00822757      2.49740281
  Si      2.49729058      5.00575315      2.49802348
  Si      7.49499329      5.00006172      2.50221066
  Si      2.48991662      9.99798713      7.49596430
  Si      7.50168456      9.99571516      7.49309547
  Si      2.49742827      4.99474929      7.49531478
  Si      7.50846676      4.99739393      7.50432041
  Si      9.99720939      2.49199666      2.50370565
  Si      5.00199026      2.49084115      2.50693157
  Si      0.00320158      7.49923077      2.49643369
  Si      4.99811752      7.50821683      2.49081513
  Si      9.99305649      2.49067503      7.50792087
  Si      5.00751939      2.50628636      7.49448800
  Si      0.00276516      7.50535422      7.49543489
  Si      5.00960814      7.50608359      7.49664169
  Si      1.25169391      1.25694607      1.24570850
  Si      6.24684922      1.24231862      1.25177322
  Si      1.23972861      6.24602884      1.25647860
  Si      6.24485079      6.25568965      1.25426307
  Si      1.24631197      1.24311687      6.25682488
  Si      6.24256112      1.25481516      6.24566287
  Si      1.24313417      6.25234626      6.24048541
  Si      6.25162703      6.24793947      6.24374421
  Si      1.25433489      3.75222205      3.74615969
  Si      6.24033092      3.76007882      3.74522622
  Si      1.25501021      8.75814953      3.75674592
  Si      6.26138503      8.75606197      3.74507684
  Si      1.25058540      3.75345075      8.74922079
  Si      6.24598509      3.74834344      8.74436631
  Si      1.24260354      8.75226342      8.74768446
  Si      6.25414952      8.74073965      8.74290409
  Si      3.74481701      1.24238074      3.75475720
  Si      8.75836700      1.24307387      3.74716747
  Si      3.74951603      6.24354285      3.75459136
  Si      8.74521124      6.24892269      3.75421765
  Si      3.74747959      1.24948907      8.75357872
  Si      8.75144150      1.25778831      8.76117715
  Si      3.75919505      6.24617644      8.74270498
  Si      8.74562920      6.25398439      8.74139025
  Si      3.74256812      3.74076162      1.24177274
  Si      8.74267145      3.74336128      1.24732466
  Si      3.74131272      8.76241624      1.24748896
  Si      8.75177131      8.75044731      1.26099031
  Si      3.75850368      3.74714615      6.25288178
  Si      8.76084718      3.75267235      6.24474470
  Si      3.74967436      8.74830108      6.25991110
  Si      8.75137242      8.76001810      6.26176221
CRYSTAL
PRIMVEC         31
   10.00000000    0.00000000    0.00000000
    0.00000000   10.00000000    0.00000000
    0.00000000    0.00000000   10.00000000
PRIMCOORD       31
      64       1
  Si      9.98776350      0.00108706      9.99480532
  Si      5.01468788      0.00454395      0.00380668
  Si      0.00305850      5.01175247      0.00538690
  Si      5.00439507      4.98610141      9.99491076
  Si      9.98706413      0.00401760      5.00030611
  Si      5.01186486      0.00049378      4.99149656
  Si      0.00164011      4.99544765      5.01404154
  Si      5.00554150      4.99181016      4.98701333
  Si      2.49629500      2.50204287      0.00879323
  Si      7.49686203      2.49862310      0.01286260
  Si      2.50905441      7.49238945      0.01249750
  Si      7.51482158      7.51203524      9.99630536
  Si      2.48545306      2.49486964      5.01193056
  Si      7.50925341      2.49620236      5.00273102
  Si      2.49955056      7.48668762      4.99391925
  Si      7.50556900      7.48937309      4.99603960
  Si      2.51441595      0.01812120      2.50567225
  Si      7.48842470      0.01224374      2.49614213
  Si      2.49628898      5.00833799      2.49686145
  Si      7.49272663      5.00019171      2.50302039
  Si      2.48535988      9.99700996      7.49440720
  Si      7.50221178      9.99450362      7.49025845
  Si      2.49618051      4.99252655      7.49278665
  Si      7.51231429      4.99594993      7.50597619
  Si      9.99599110      2.48852162      2.50532634
  Si      5.00260250      2.48646460      2.51013338
  Si      0.00475356      7.49901329      2.49548257
  Si      4.99681638      7.51243032      2.48683267
  Si      9.98993312      2.48649332      7.51162094
  Si      5.01079339      2.50883702      7.49219578
  Si      0.00407190      7.50773145      7.49321169
  Si      5.01420031      7.50856685      7.49481949
  Si      1.25226352      1.25981420      1.24373715
  Si      6.24530093      1.23911982      1.25262585
  Si      1.23514854      6.24434857      1.25945948
  Si      6.24260552      6.25841984      1.25580560
  Si      1.24408716      1.23990223      6.26000108
  Si      6.23931615      1.25697795      6.24361840
  Si      1.24005983      6.25346223      6.23630423
  Si      6.25247336      6.24660187      6.24089630
  Si      1.25622622      3.75325107      3.74436405
  Si      6.23622472      3.76418122      3.74298999
  Si      1.25740811      8.76214019      3.75977503
  Si      6.26679259      8.75852714      3.74274321
  Si      1.25062886      3.75495644      8.74895297
  Si      6.24458935      3.74743623      8.74180276
  Si      1.23936102      8.75308381      8.74706806
  Si      6.25628075      8.73672742      8.73975220
  Si      3.74250313      1.23926879      3.75763368
  Si      8.76186477      1.23979178      3.74579061
  Si      3.74964476      6.24064152      3.75635706
  Si      8.74343584      6.24811405      3.75600237
  Si      3.74635929      1.24929320      8.75502767
  Si      8.75141627      1.26119748      8.76639726
  Si      3.76357768      6.24438475      8.73909474
  Si      8.74396099      6.25604677      8.73739277
  Si      3.73940321      3.73651673      1.23845873
  Si      8.73954529      3.74050985      1.24632070
  Si      3.73731933      8.76858351      1.24617775
  Si      8.75254698      8.75095743      1.26636976
  Si      3.76240106      3.74585880      6.25388505
  Si      8.76585196      3.75356586      6.24265237
  Si      3.74947826      8.74758545      6.26412732
  Si      8.75196496      8.76431321      6.26682191
CRYSTAL
PRIMVEC         41
   10.00000000    0.00000000    0.00000000
    0.00000000   10.00000000    0.00000000
    0.00000000    0.00000000   10.00000000
PRIMCOORD       41
      64       1
  Si      9.98425544      0.00129036      9.99394255
  Si      5.01908168      0.00520041      0.00404225
  Si      0.00304303      5.01494471      0.00656157
  Si      5.00569618      4.98201552      9.99387682
  Si      9.98351640      0.00491937      5.00084353
  Si      5.01513230      9.99984600      4.98915967
  Si      0.00238403      4.99418432      5.01696435
  Si      5.00680369      4.98964640      4.98390474
  Si      2.49477249      2.50250404      0.01031304
  Si      7.49475424      2.49812325      0.01649946
  Si      2.51135797      7.48963409      0.01576022
  Si      7.51929491      7.51544704      9.99577732
  Si      2.48114578      2.49337210      5.01578965
  Si      7.51193665      2.49545098      5.00277312
  Si      2.49979359      7.48320743      4.99232684
  Si      7.50748622      7.48725132      4.99550850
  Si      2.51763274      0.02361398      2.50702200
  Si      7.48570931      0.01613808      2.49493372
  Si      2.49568400      5.01059068      2.49551643
  Si      7.49072665      5.00044000      2.50349318
  Si      2.48136010      9.99605125      7.49337293
  Si      7.50235811      9.99433229      7.48811501
  Si      2.49498345      4.99074687      7.49006164
  Si      7.51572894      4.99434406      7.50706809
  Si      9.99498220      2.48564370      2.50667893
  Si      5.00278986      2.48231519      2.51304949
  Si      0.00624343      7.49899384      2.49546752
  Si      4.99512577      7.51676299      2.48351679
  Si      9.98720766      2.48285894      7.51502404
  Si      5.01352244      2.51072197      7.49041924
  Si      0.00529778      7.50977325      7.49105922
  Si      5.01854074      7.51041398      7.49282364
  Si      1.25250926      1.26200529      1.24197129
  Si      6.24376931      1.23666197      1.25343898
  Si      1.23119904      6.24301129      1.26214745
  Si      6.24072121      6.26101723      1.25670333
  Si      1.24143424      1.23695604      6.26290416
  Si      6.23661019      1.25886922      6.24169528
  Si      1.23739469      6.25452504      6.23277157
  Si      6.25336178      6.24492789      6.23835830
  Si      1.25781960      3.75417884      3.74270855
  Si      6.23293593      3.76722274      3.74088297
  Si      1.25969165      8.76603354      3.76243052
  Si      6.27187180      8.76034987      3.74056319
  Si      1.25039128      3.75622819      8.74881676
  Si      6.24388187      3.74645689      8.73952578
  Si      1.23662021      8.75356660      8.74705418
  Si      6.25849473      8.73341187      8.73705244
  Si      3.74052149      1.23695605      3.76109036
  Si      8.76458275      1.23672546      3.74445713
  Si      3.75017541      6.23810423      3.75753025
  Si      8.74234638      6.24700123      3.75741696
  Si      3.74539404      1.24915226      8.75610982
  Si      8.75056303      1.26407237      8.77121787
  Si      3.76771569      6.24272178      8.73553345
  Si      8.74286648      6.25819324      8.73374418
  Si      3.73687339      3.73271196      1.23604549
  Si      8.73702581      3.73818915      1.24569711
  Si      3.73371722      8.77469046      1.24479215
  Si      8.75320094      8.75178221      1.27161278
  Si      3.76588398      3.74473293      6.25439891
  Si      8.77036459      3.75393912      6.24117057
  Si      3.74924028      8.74701827      6.26752830
  Si      8.75247391      8.76780835      6.27096444
CRYSTAL
PRIMVEC         51
   10.00000000    0.00000000    0.00000000
    0.00000000   10.00000000    0.00000000
    0.00000000    0.00000000   10.00000000
PRIMCOORD       51
      64       1
  Si      9.98119089      0.00135657      9.99374043
  Si      5.02305059      0.00520070      0.00345828
  Si      0.00223301      5.01756157      0.00724256
  Si      5.00685651      4.97836311      9.99334870
  Si      9.98057683      0.00546182      5.00170885
  Si      5.01788657      9.99857449      4.98720125
  Si      0.00328926      4.99311579      5.01851919
  Si      5.00760500      4.98793734      4.98175445
  Si      2.49303654      2.50278648      0.01072860
  Si      7.49185142      2.49760567      0.01964069
  Si      2.51314859      7.48670821      0.01833446
  Si      7.52341912      7.51840489      9.99578506
  Si      2.47723894      2.49205609      5.01955361
  Si      7.51432353      2.49507465      5.00218443
  Si      2.50032889      7.48047267      4.99104959
  Si      7.50942583      7.48619004      4.99556993
  Si      2.51960933      0.02866767      2.50794510
  Si      7.48388553      0.01986455      2.49380025
  Si      2.49556681      5.01242608      2.49396330
  Si      7.48905354      5.00084224      2.50354568
  Si      2.47805782      9.99510368      7.49298495
  Si      7.50202469      9.99542361      7.48681537
  Si      2.49385674      4.98949960      7.48711356
  Si      7.51861612      4.99254590      7.50747409
  Si      9.99424037      2.48350454      2.50769660
  Si      5.00245559      2.47845072      2.51562501
  Si      0.00765158      7.49923087      2.49660345
  Si      4.99297780      7.52123381      2.48099631
  Si      9.98497413      2.47990079      7.51806761
  Si      5.01557720      2.51178907      7.48927311
  Si      0.00643201      7.51140942      7.48900294
  Si      5.02255774      7.51147725      7.49060392
  Si      1.25234349      1.26337109      1.24046396
  Si      6.24223489      1.23512583      1.25420028
  Si      1.22802310      6.24209562      1.26446764
  Si      6.23926529      6.26345592      1.25683099
  Si      1.23826497      1.23435312      6.26546778
  Si      6.23457400      1.26043169      6.23989730
  Si      1.23524144      6.25552962      6.23003309
  Si      6.25431539      6.24285188      6.23619561
  Si      1.25906541      3.75497022      3.74122361
  Si      6.23064973      3.76895467      3.73890580
  Si      1.26184032      8.76979974      3.76464004
  Si      6.27653719      8.76137699      3.73857914
  Si      1.24980749      3.75723436      8.74883059
  Si      6.24401485      3.74540864      8.73760363
  Si      1.23448911      8.75364039      8.74777986
  Si      6.26082717      8.73094848      8.73491207
  Si      3.73895910      1.23563231      3.76527225
  Si      8.76634235      1.23394434      3.74318270
  Si      3.75118443      6.23601826      3.75797527
  Si      8.74207926      6.24552395      3.75837601
  Si      3.74462047      1.24906396      8.75675593
  Si      8.74870900      1.26629935      8.77555677
  Si      3.77154468      6.24120916      8.73204444
  Si      8.74246105      6.26044100      8.73052591
  Si      3.73513503      3.72945736      1.23473552
  Si      8.73524844      3.73651989      1.24553824
  Si      3.73058981      8.78069995      1.24329865
  Si      8.75371234      8.75297841      1.27668006
  Si      3.76883694      3.74380475      6.25431919
  Si      8.77425484      3.75365563      6.24043655
  Si      3.74894836      8.74663203      6.26994131
  Si      8.75288153      8.77033148      6.27399847
CRYSTAL
PRIMVEC         61
   10.00000000    0.00000000    0.00000000
    0.00000000   10.00000000    0.00000000
    0.00000000    0.00000000   10.00000000
PRIMCOORD       61
      64       1
  Si      9.97862607      0.00126157      9.99426632
  Si      5.02651443      0.00448134      0.00193690
  Si      0.00053924      5.01952234      0.00736466
  Si      5.00784823      4.97521055      9.99338045
  Si      9.97833243      0.00558589      5.00291909
  Si      5.02007737      9.99659725      4.98567221
  Si      0.00437401      4.99225387      5.01854635
  Si      5.00789913      4.98673938      4.98067366
  Si      2.49108294      2.50286881      0.00991188
  Si      7.48809549      2.49710141      0.02223966
  Si      2.51439937      7.48359798      0.02013181
  Si      7.52715581      7.52085367      9.99639363
  Si      2.47376384      2.49096471      5.02320736
  Si      7.51637857      2.49510873      5.00091457
  Si      2.50118814      7.47858430      4.99010755
  Si      7.51138329      7.48627539      4.99627858
  Si      2.52019830      0.03322878      2.50840359
  Si      7.48305337      0.02337546      2.49276300
  Si      2.49599860      5.01377682      2.49219997
  Si      7.48774455      5.00142887      2.50311732
  Si      2.47555354      9.99416069      7.49332484
  Si      7.50115996      9.99790276      7.48643951
  Si      2.49281821      4.98883433      7.48394470
  Si      7.52092071      4.99055211      7.50712252
  Si      9.99380768      2.48220003      2.50833496
  Si      5.00152917      2.47492098      2.51782892
  Si      0.00896497      7.49977322      2.49903215
  Si      4.99034685      7.52583931      2.47933773
  Si      9.98329153      2.47770156      7.52072656
  Si      5.01686308      2.51193842      7.48883410
  Si      0.00747586      7.51260367      7.48707172
  Si      5.02619630      7.51166652      7.48812572
  Si      1.25169977      1.26382290      1.23924818
  Si      6.24065982      1.23462415      1.25489730
  Si      1.22570426      6.24165408      1.26635941
  Si      6.23826666      6.26573154      1.25612381
  Si      1.23454000      1.23214946      6.26765169
  Si      6.23329971      1.26163182      6.23820688
  Si      1.23367625      6.25647062      6.22817823
  Si      6.25536733      6.24033953      6.23444788
  Si      1.25994880      3.75559164      3.73992590
  Si      6.22948472      3.76921431      3.73705921
  Si      1.26384324      8.77340875      3.76636312
  Si      6.28072385      8.76150437      3.73681919
  Si      1.24883399      3.75797724      8.74899204
  Si      6.24507742      3.74430824      8.73608341
  Si      1.23304018      8.75325310      8.74934146
  Si      6.26330660      8.72942899      8.73339895
  Si      3.73786569      1.23541449      3.77026903
  Si      8.76703847      1.23151517      3.74199018
  Si      3.75271297      6.23445341      3.75759838
  Si      8.74269929      6.24366072      3.75882923
  Si      3.74406733      1.24901497      8.75692679
  Si      8.74575819      1.26780550      8.77935747
  Si      3.77501065      6.23985496      8.72865607
  Si      8.74280149      6.26279067      8.72779029
  Si      3.73429007      3.72681664      1.23465202
  Si      8.73429382      3.73557423      1.24588800
  Si      3.72798443      8.78656360      1.24166071
  Si      8.75407814      8.75456469      1.28153878
  Si      3.77116680      3.74309039      6.25358870
  Si      8.77743356      3.75262423      6.24052376
  Si      3.74859572      8.74644793      6.27125708
  Si      8.75314978      8.77178695      6.27582491
CRYSTAL
PRIMVEC         71
   10.00000000    0.00000000    0.00000000
    0.00000000   10.00000000    0.00000000
    0.00000000    0.00000000   10.00000000
PRIMCOORD       71
      64       1
  Si      9.97658538      0.00099371      9.99553286
  Si      5.02942034      0.00303998      9.99941682
  Si      9.99793457      5.02078760      0.00690373
  Si      5.00865275      4.97260002      9.99398615
  Si      9.97682617      0.00525803      5.00444759
  Si      5.02169107      9.99386793      4.98460574
  Si      0.00563620      4.99158369      5.01700207
  Si      5.00769165      4.98606338      4.98068433
  Si      2.48894049      2.50274949      0.00783342
  Si      7.48351043      2.49666855      0.02429479
  Si      2.51512980      7.48031001      0.02110046
  Si      7.53048711      7.52276352      9.99763529
  Si      2.47071714      2.49013809      5.02674214
  Si      7.51807853      2.49556702      4.99895797
  Si      2.50238621      7.47759610      4.98949354
  Si      7.51336167      7.48749737      4.99763947
  Si      2.51935759      0.03728748      2.50841370
  Si      7.48322973      0.02662340      2.49183840
  Si      2.49700714      5.01459584      2.49024725
  Si      7.48681098      5.00222320      2.50217342
  Si      2.47390059      9.99322044      7.49442662
  Si      7.49977094      0.00178749      7.48698827
  Si      2.49188288      4.98875884      7.48058760
  Si      7.52263118      4.98839138      7.50599659
  Si      9.99370630      2.48177442      2.50857650
  Si      4.99996650      2.47176825      2.51965443
  Si      0.01018032      7.50065669      2.50281429
  Si      4.98725055      7.53055122      2.47854304
  Si      9.98217837      2.47629117      7.52302002
  Si      5.01732367      2.51112816      7.48913800
  Si      0.00844325      7.51335793      7.48529824
  Si      5.02942310      7.51095812      7.48537602
  Si      1.25053791      1.26333878      1.23833132
  Si      6.23898781      1.23518679      1.25551813
  Si      1.22425791      6.24171080      1.26777794
  Si      6.23771370      6.26786416      1.25457947
  Si      1.23027677      1.23037699      6.26944755
  Si      6.23283509      1.26246213      6.23658621
  Si      1.23274518      6.25733880      6.22723279
  Si      6.25656203      6.23738972      6.23312760
  Si      1.26049153      3.75601251      3.73881637
  Si      6.22948527      3.76793767      3.73535479
  Si      1.26569887      8.77682994      3.76759144
  Si      6.28439062      8.76068299      3.73529309
  Si      1.24745107      3.75849494      8.74927637
  Si      6.24708674      3.74318458      8.73498735
  Si      1.23231008      8.75237061      8.75179247
  Si      6.26594895      8.72887240      8.73253414
  Si      3.73724385      1.23633397      3.77610273
  Si      8.76665203      1.22950108      3.74091295
  Si      3.75476659      6.23346219      3.75635107
  Si      8.74419294      6.24143424      3.75876583
  Si      3.74375504      1.24898174      8.75661289
  Si      8.74169902      1.26856049      8.78258874
  Si      3.77807059      6.23865363      8.72540159
  Si      8.74388064      6.26522253      8.72555730
  Si      3.73437592      3.72479675      1.23582852
  Si      8.73418156      3.73536994      1.24674420
  Si      3.72590901      8.79222280      1.23984146
  Si      8.75431585      8.75651746      1.28616383
  Si      3.77280768      3.74258141      6.25220298
  Si      8.77986256      3.75081039      6.24143054
  Si      3.74818251      8.74647511      6.27143268
  Si      8.75321210      8.77216395      6.27644690
CRYSTAL
PRIMVEC         81
   10.00000000    0.00000000    0.00000000
    0.00000000   10.00000000    0.00000000
    0.00000000    0.00000000   10.00000000
PRIMCOORD       81
      64       1
  Si      9.97505998      0.00055487      9.99749646
  Si      5.03174572      0.00093711      9.99589755
  Si      9.99445496      5.02136117      0.00587917
  Si      5.00926206      4.97054865      9.99514005
  Si      9.97605322      0.00447215      5.00622296
  Si      5.02274972      9.99037678      4.98401690
  Si      0.00705333      4.99106373      5.01396388
  Si      5.00704148      4.98587293      4.98171433
  Si      2.48667013      2.50244638      0.00456587
  Si      7.47820323      2.49638974      0.02584888
  Si      2.51540314      7.47687110      0.02122349
  Si      7.53341485      7.52412902      9.99950944
  Si      2.46806119      2.48961187      5.03015610
  Si      7.51941199      2.49644353      4.99635227
  Si      2.50392165      7.47751264      4.98917441
  Si      7.51537099      7.48975069      4.99960797
  Si      2.51715517      0.04087754      2.50804755
  Si      7.48434207      0.02956407      2.49103475
  Si      2.49858504      5.01485887      2.48814675
  Si      7.48623681      5.00324011      2.50070657
  Si      2.47310167      9.99228721      7.49627519